version 2
run EpiChord-0-20170124-14:11:22-19880
attr configname EpiChord
attr datetime 20170124-14:11:22
attr experiment EpiChord
attr inifile omnetpp.ini
attr iterationvars ""
attr iterationvars2 $repetition=0
attr measurement ""
attr network oversim.underlay.simpleunderlay.SimpleUnderlayNetwork
attr processid 19880
attr repetition 0
attr replication #0
attr resultdir results
attr runnumber 0
attr seedset 0

vector 6  SimpleUnderlayNetwork.overlayTerminal[1].udp  sentPk:vector(packetBytes)  ETV
attr interpolationmode  none
attr source  sentPk
attr title  "packets sent, vector(packetBytes)"
vector 2  SimpleUnderlayNetwork.overlayTerminal[0].udp  rcvdPk:vector(packetBytes)  ETV
attr interpolationmode  none
attr source  rcvdPk
attr title  "packets received, vector(packetBytes)"
vector 3  SimpleUnderlayNetwork.overlayTerminal[0].udp  passedUpPk:vector(count)  ETV
attr interpolationmode  none
attr title  "packets passed up, vector(count)"
vector 1  SimpleUnderlayNetwork.overlayTerminal[0].udp  sentPk:vector(packetBytes)  ETV
attr interpolationmode  none
attr source  sentPk
attr title  "packets sent, vector(packetBytes)"
vector 7  SimpleUnderlayNetwork.overlayTerminal[1].udp  rcvdPk:vector(packetBytes)  ETV
attr interpolationmode  none
attr source  rcvdPk
attr title  "packets received, vector(packetBytes)"
vector 8  SimpleUnderlayNetwork.overlayTerminal[1].udp  passedUpPk:vector(count)  ETV
attr interpolationmode  none
attr title  "packets passed up, vector(count)"
vector 11  SimpleUnderlayNetwork.overlayTerminal[2].udp  sentPk:vector(packetBytes)  ETV
attr interpolationmode  none
attr source  sentPk
attr title  "packets sent, vector(packetBytes)"
vector 12  SimpleUnderlayNetwork.overlayTerminal[2].udp  rcvdPk:vector(packetBytes)  ETV
attr interpolationmode  none
attr source  rcvdPk
attr title  "packets received, vector(packetBytes)"
vector 13  SimpleUnderlayNetwork.overlayTerminal[2].udp  passedUpPk:vector(count)  ETV
attr interpolationmode  none
attr title  "packets passed up, vector(count)"
vector 16  SimpleUnderlayNetwork.overlayTerminal[3].udp  sentPk:vector(packetBytes)  ETV
attr interpolationmode  none
attr source  sentPk
attr title  "packets sent, vector(packetBytes)"
vector 17  SimpleUnderlayNetwork.overlayTerminal[3].udp  rcvdPk:vector(packetBytes)  ETV
attr interpolationmode  none
attr source  rcvdPk
attr title  "packets received, vector(packetBytes)"
vector 18  SimpleUnderlayNetwork.overlayTerminal[3].udp  passedUpPk:vector(count)  ETV
attr interpolationmode  none
attr title  "packets passed up, vector(count)"
vector 21  SimpleUnderlayNetwork.overlayTerminal[4].udp  sentPk:vector(packetBytes)  ETV
attr interpolationmode  none
attr source  sentPk
attr title  "packets sent, vector(packetBytes)"
vector 22  SimpleUnderlayNetwork.overlayTerminal[4].udp  rcvdPk:vector(packetBytes)  ETV
attr interpolationmode  none
attr source  rcvdPk
attr title  "packets received, vector(packetBytes)"
vector 23  SimpleUnderlayNetwork.overlayTerminal[4].udp  passedUpPk:vector(count)  ETV
attr interpolationmode  none
attr title  "packets passed up, vector(count)"
vector 26  SimpleUnderlayNetwork.overlayTerminal[5].udp  sentPk:vector(packetBytes)  ETV
attr interpolationmode  none
attr source  sentPk
attr title  "packets sent, vector(packetBytes)"
vector 27  SimpleUnderlayNetwork.overlayTerminal[5].udp  rcvdPk:vector(packetBytes)  ETV
attr interpolationmode  none
attr source  rcvdPk
attr title  "packets received, vector(packetBytes)"
vector 28  SimpleUnderlayNetwork.overlayTerminal[5].udp  passedUpPk:vector(count)  ETV
attr interpolationmode  none
attr title  "packets passed up, vector(count)"
vector 31  SimpleUnderlayNetwork.overlayTerminal[6].udp  sentPk:vector(packetBytes)  ETV
attr interpolationmode  none
attr source  sentPk
attr title  "packets sent, vector(packetBytes)"
vector 32  SimpleUnderlayNetwork.overlayTerminal[6].udp  rcvdPk:vector(packetBytes)  ETV
attr interpolationmode  none
attr source  rcvdPk
attr title  "packets received, vector(packetBytes)"
vector 33  SimpleUnderlayNetwork.overlayTerminal[6].udp  passedUpPk:vector(count)  ETV
attr interpolationmode  none
attr title  "packets passed up, vector(count)"
vector 36  SimpleUnderlayNetwork.overlayTerminal[7].udp  sentPk:vector(packetBytes)  ETV
attr interpolationmode  none
attr source  sentPk
attr title  "packets sent, vector(packetBytes)"
vector 41  SimpleUnderlayNetwork.overlayTerminal[8].udp  sentPk:vector(packetBytes)  ETV
attr interpolationmode  none
attr source  sentPk
attr title  "packets sent, vector(packetBytes)"
vector 46  SimpleUnderlayNetwork.overlayTerminal[9].udp  sentPk:vector(packetBytes)  ETV
attr interpolationmode  none
attr source  sentPk
attr title  "packets sent, vector(packetBytes)"
vector 42  SimpleUnderlayNetwork.overlayTerminal[8].udp  rcvdPk:vector(packetBytes)  ETV
attr interpolationmode  none
attr source  rcvdPk
attr title  "packets received, vector(packetBytes)"
vector 43  SimpleUnderlayNetwork.overlayTerminal[8].udp  passedUpPk:vector(count)  ETV
attr interpolationmode  none
attr title  "packets passed up, vector(count)"
vector 47  SimpleUnderlayNetwork.overlayTerminal[9].udp  rcvdPk:vector(packetBytes)  ETV
attr interpolationmode  none
attr source  rcvdPk
attr title  "packets received, vector(packetBytes)"
vector 48  SimpleUnderlayNetwork.overlayTerminal[9].udp  passedUpPk:vector(count)  ETV
attr interpolationmode  none
attr title  "packets passed up, vector(count)"
vector 51  SimpleUnderlayNetwork.overlayTerminal[10].udp  sentPk:vector(packetBytes)  ETV
attr interpolationmode  none
attr source  sentPk
attr title  "packets sent, vector(packetBytes)"
vector 52  SimpleUnderlayNetwork.overlayTerminal[10].udp  rcvdPk:vector(packetBytes)  ETV
attr interpolationmode  none
attr source  rcvdPk
attr title  "packets received, vector(packetBytes)"
vector 53  SimpleUnderlayNetwork.overlayTerminal[10].udp  passedUpPk:vector(count)  ETV
attr interpolationmode  none
attr title  "packets passed up, vector(count)"
vector 56  SimpleUnderlayNetwork.overlayTerminal[11].udp  sentPk:vector(packetBytes)  ETV
attr interpolationmode  none
attr source  sentPk
attr title  "packets sent, vector(packetBytes)"
vector 57  SimpleUnderlayNetwork.overlayTerminal[11].udp  rcvdPk:vector(packetBytes)  ETV
attr interpolationmode  none
attr source  rcvdPk
attr title  "packets received, vector(packetBytes)"
vector 58  SimpleUnderlayNetwork.overlayTerminal[11].udp  passedUpPk:vector(count)  ETV
attr interpolationmode  none
attr title  "packets passed up, vector(count)"
vector 61  SimpleUnderlayNetwork.overlayTerminal[12].udp  sentPk:vector(packetBytes)  ETV
attr interpolationmode  none
attr source  sentPk
attr title  "packets sent, vector(packetBytes)"
vector 62  SimpleUnderlayNetwork.overlayTerminal[12].udp  rcvdPk:vector(packetBytes)  ETV
attr interpolationmode  none
attr source  rcvdPk
attr title  "packets received, vector(packetBytes)"
vector 63  SimpleUnderlayNetwork.overlayTerminal[12].udp  passedUpPk:vector(count)  ETV
attr interpolationmode  none
attr title  "packets passed up, vector(count)"
vector 66  SimpleUnderlayNetwork.overlayTerminal[13].udp  sentPk:vector(packetBytes)  ETV
attr interpolationmode  none
attr source  sentPk
attr title  "packets sent, vector(packetBytes)"
vector 67  SimpleUnderlayNetwork.overlayTerminal[13].udp  rcvdPk:vector(packetBytes)  ETV
attr interpolationmode  none
attr source  rcvdPk
attr title  "packets received, vector(packetBytes)"
vector 68  SimpleUnderlayNetwork.overlayTerminal[13].udp  passedUpPk:vector(count)  ETV
attr interpolationmode  none
attr title  "packets passed up, vector(count)"
vector 71  SimpleUnderlayNetwork.overlayTerminal[14].udp  sentPk:vector(packetBytes)  ETV
attr interpolationmode  none
attr source  sentPk
attr title  "packets sent, vector(packetBytes)"
vector 72  SimpleUnderlayNetwork.overlayTerminal[14].udp  rcvdPk:vector(packetBytes)  ETV
attr interpolationmode  none
attr source  rcvdPk
attr title  "packets received, vector(packetBytes)"
vector 73  SimpleUnderlayNetwork.overlayTerminal[14].udp  passedUpPk:vector(count)  ETV
attr interpolationmode  none
attr title  "packets passed up, vector(count)"
vector 76  SimpleUnderlayNetwork.overlayTerminal[15].udp  sentPk:vector(packetBytes)  ETV
attr interpolationmode  none
attr source  sentPk
attr title  "packets sent, vector(packetBytes)"
vector 77  SimpleUnderlayNetwork.overlayTerminal[15].udp  rcvdPk:vector(packetBytes)  ETV
attr interpolationmode  none
attr source  rcvdPk
attr title  "packets received, vector(packetBytes)"
vector 78  SimpleUnderlayNetwork.overlayTerminal[15].udp  passedUpPk:vector(count)  ETV
attr interpolationmode  none
attr title  "packets passed up, vector(count)"
vector 81  SimpleUnderlayNetwork.overlayTerminal[16].udp  sentPk:vector(packetBytes)  ETV
attr interpolationmode  none
attr source  sentPk
attr title  "packets sent, vector(packetBytes)"
vector 86  SimpleUnderlayNetwork.overlayTerminal[17].udp  sentPk:vector(packetBytes)  ETV
attr interpolationmode  none
attr source  sentPk
attr title  "packets sent, vector(packetBytes)"
vector 82  SimpleUnderlayNetwork.overlayTerminal[16].udp  rcvdPk:vector(packetBytes)  ETV
attr interpolationmode  none
attr source  rcvdPk
attr title  "packets received, vector(packetBytes)"
vector 83  SimpleUnderlayNetwork.overlayTerminal[16].udp  passedUpPk:vector(count)  ETV
attr interpolationmode  none
attr title  "packets passed up, vector(count)"
vector 37  SimpleUnderlayNetwork.overlayTerminal[7].udp  rcvdPk:vector(packetBytes)  ETV
attr interpolationmode  none
attr source  rcvdPk
attr title  "packets received, vector(packetBytes)"
vector 38  SimpleUnderlayNetwork.overlayTerminal[7].udp  passedUpPk:vector(count)  ETV
attr interpolationmode  none
attr title  "packets passed up, vector(count)"
vector 87  SimpleUnderlayNetwork.overlayTerminal[17].udp  rcvdPk:vector(packetBytes)  ETV
attr interpolationmode  none
attr source  rcvdPk
attr title  "packets received, vector(packetBytes)"
vector 88  SimpleUnderlayNetwork.overlayTerminal[17].udp  passedUpPk:vector(count)  ETV
attr interpolationmode  none
attr title  "packets passed up, vector(count)"
vector 91  SimpleUnderlayNetwork.overlayTerminal[18].udp  sentPk:vector(packetBytes)  ETV
attr interpolationmode  none
attr source  sentPk
attr title  "packets sent, vector(packetBytes)"
vector 92  SimpleUnderlayNetwork.overlayTerminal[18].udp  rcvdPk:vector(packetBytes)  ETV
attr interpolationmode  none
attr source  rcvdPk
attr title  "packets received, vector(packetBytes)"
vector 93  SimpleUnderlayNetwork.overlayTerminal[18].udp  passedUpPk:vector(count)  ETV
attr interpolationmode  none
attr title  "packets passed up, vector(count)"
vector 96  SimpleUnderlayNetwork.overlayTerminal[19].udp  sentPk:vector(packetBytes)  ETV
attr interpolationmode  none
attr source  sentPk
attr title  "packets sent, vector(packetBytes)"
vector 97  SimpleUnderlayNetwork.overlayTerminal[19].udp  rcvdPk:vector(packetBytes)  ETV
attr interpolationmode  none
attr source  rcvdPk
attr title  "packets received, vector(packetBytes)"
vector 98  SimpleUnderlayNetwork.overlayTerminal[19].udp  passedUpPk:vector(count)  ETV
attr interpolationmode  none
attr title  "packets passed up, vector(count)"
vector 101  SimpleUnderlayNetwork.overlayTerminal[20].udp  sentPk:vector(packetBytes)  ETV
attr interpolationmode  none
attr source  sentPk
attr title  "packets sent, vector(packetBytes)"
vector 106  SimpleUnderlayNetwork.overlayTerminal[21].udp  sentPk:vector(packetBytes)  ETV
attr interpolationmode  none
attr source  sentPk
attr title  "packets sent, vector(packetBytes)"
vector 107  SimpleUnderlayNetwork.overlayTerminal[21].udp  rcvdPk:vector(packetBytes)  ETV
attr interpolationmode  none
attr source  rcvdPk
attr title  "packets received, vector(packetBytes)"
vector 108  SimpleUnderlayNetwork.overlayTerminal[21].udp  passedUpPk:vector(count)  ETV
attr interpolationmode  none
attr title  "packets passed up, vector(count)"
vector 111  SimpleUnderlayNetwork.overlayTerminal[22].udp  sentPk:vector(packetBytes)  ETV
attr interpolationmode  none
attr source  sentPk
attr title  "packets sent, vector(packetBytes)"
vector 116  SimpleUnderlayNetwork.overlayTerminal[23].udp  sentPk:vector(packetBytes)  ETV
attr interpolationmode  none
attr source  sentPk
attr title  "packets sent, vector(packetBytes)"
vector 117  SimpleUnderlayNetwork.overlayTerminal[23].udp  rcvdPk:vector(packetBytes)  ETV
attr interpolationmode  none
attr source  rcvdPk
attr title  "packets received, vector(packetBytes)"
vector 118  SimpleUnderlayNetwork.overlayTerminal[23].udp  passedUpPk:vector(count)  ETV
attr interpolationmode  none
attr title  "packets passed up, vector(count)"
vector 121  SimpleUnderlayNetwork.overlayTerminal[24].udp  sentPk:vector(packetBytes)  ETV
attr interpolationmode  none
attr source  sentPk
attr title  "packets sent, vector(packetBytes)"
vector 122  SimpleUnderlayNetwork.overlayTerminal[24].udp  rcvdPk:vector(packetBytes)  ETV
attr interpolationmode  none
attr source  rcvdPk
attr title  "packets received, vector(packetBytes)"
vector 123  SimpleUnderlayNetwork.overlayTerminal[24].udp  passedUpPk:vector(count)  ETV
attr interpolationmode  none
attr title  "packets passed up, vector(count)"
vector 126  SimpleUnderlayNetwork.overlayTerminal[25].udp  sentPk:vector(packetBytes)  ETV
attr interpolationmode  none
attr source  sentPk
attr title  "packets sent, vector(packetBytes)"
vector 127  SimpleUnderlayNetwork.overlayTerminal[25].udp  rcvdPk:vector(packetBytes)  ETV
attr interpolationmode  none
attr source  rcvdPk
attr title  "packets received, vector(packetBytes)"
vector 128  SimpleUnderlayNetwork.overlayTerminal[25].udp  passedUpPk:vector(count)  ETV
attr interpolationmode  none
attr title  "packets passed up, vector(count)"
vector 131  SimpleUnderlayNetwork.overlayTerminal[26].udp  sentPk:vector(packetBytes)  ETV
attr interpolationmode  none
attr source  sentPk
attr title  "packets sent, vector(packetBytes)"
vector 132  SimpleUnderlayNetwork.overlayTerminal[26].udp  rcvdPk:vector(packetBytes)  ETV
attr interpolationmode  none
attr source  rcvdPk
attr title  "packets received, vector(packetBytes)"
vector 133  SimpleUnderlayNetwork.overlayTerminal[26].udp  passedUpPk:vector(count)  ETV
attr interpolationmode  none
attr title  "packets passed up, vector(count)"
vector 136  SimpleUnderlayNetwork.overlayTerminal[27].udp  sentPk:vector(packetBytes)  ETV
attr interpolationmode  none
attr source  sentPk
attr title  "packets sent, vector(packetBytes)"
vector 137  SimpleUnderlayNetwork.overlayTerminal[27].udp  rcvdPk:vector(packetBytes)  ETV
attr interpolationmode  none
attr source  rcvdPk
attr title  "packets received, vector(packetBytes)"
vector 138  SimpleUnderlayNetwork.overlayTerminal[27].udp  passedUpPk:vector(count)  ETV
attr interpolationmode  none
attr title  "packets passed up, vector(count)"
vector 141  SimpleUnderlayNetwork.overlayTerminal[28].udp  sentPk:vector(packetBytes)  ETV
attr interpolationmode  none
attr source  sentPk
attr title  "packets sent, vector(packetBytes)"
vector 146  SimpleUnderlayNetwork.overlayTerminal[29].udp  sentPk:vector(packetBytes)  ETV
attr interpolationmode  none
attr source  sentPk
attr title  "packets sent, vector(packetBytes)"
vector 102  SimpleUnderlayNetwork.overlayTerminal[20].udp  rcvdPk:vector(packetBytes)  ETV
attr interpolationmode  none
attr source  rcvdPk
attr title  "packets received, vector(packetBytes)"
vector 103  SimpleUnderlayNetwork.overlayTerminal[20].udp  passedUpPk:vector(count)  ETV
attr interpolationmode  none
attr title  "packets passed up, vector(count)"
vector 151  SimpleUnderlayNetwork.overlayTerminal[30].udp  sentPk:vector(packetBytes)  ETV
attr interpolationmode  none
attr source  sentPk
attr title  "packets sent, vector(packetBytes)"
vector 152  SimpleUnderlayNetwork.overlayTerminal[30].udp  rcvdPk:vector(packetBytes)  ETV
attr interpolationmode  none
attr source  rcvdPk
attr title  "packets received, vector(packetBytes)"
vector 153  SimpleUnderlayNetwork.overlayTerminal[30].udp  passedUpPk:vector(count)  ETV
attr interpolationmode  none
attr title  "packets passed up, vector(count)"
vector 156  SimpleUnderlayNetwork.overlayTerminal[31].udp  sentPk:vector(packetBytes)  ETV
attr interpolationmode  none
attr source  sentPk
attr title  "packets sent, vector(packetBytes)"
vector 157  SimpleUnderlayNetwork.overlayTerminal[31].udp  rcvdPk:vector(packetBytes)  ETV
attr interpolationmode  none
attr source  rcvdPk
attr title  "packets received, vector(packetBytes)"
vector 158  SimpleUnderlayNetwork.overlayTerminal[31].udp  passedUpPk:vector(count)  ETV
attr interpolationmode  none
attr title  "packets passed up, vector(count)"
vector 161  SimpleUnderlayNetwork.overlayTerminal[32].udp  sentPk:vector(packetBytes)  ETV
attr interpolationmode  none
attr source  sentPk
attr title  "packets sent, vector(packetBytes)"
vector 162  SimpleUnderlayNetwork.overlayTerminal[32].udp  rcvdPk:vector(packetBytes)  ETV
attr interpolationmode  none
attr source  rcvdPk
attr title  "packets received, vector(packetBytes)"
vector 163  SimpleUnderlayNetwork.overlayTerminal[32].udp  passedUpPk:vector(count)  ETV
attr interpolationmode  none
attr title  "packets passed up, vector(count)"
vector 166  SimpleUnderlayNetwork.overlayTerminal[33].udp  sentPk:vector(packetBytes)  ETV
attr interpolationmode  none
attr source  sentPk
attr title  "packets sent, vector(packetBytes)"
vector 167  SimpleUnderlayNetwork.overlayTerminal[33].udp  rcvdPk:vector(packetBytes)  ETV
attr interpolationmode  none
attr source  rcvdPk
attr title  "packets received, vector(packetBytes)"
vector 168  SimpleUnderlayNetwork.overlayTerminal[33].udp  passedUpPk:vector(count)  ETV
attr interpolationmode  none
attr title  "packets passed up, vector(count)"
vector 171  SimpleUnderlayNetwork.overlayTerminal[34].udp  sentPk:vector(packetBytes)  ETV
attr interpolationmode  none
attr source  sentPk
attr title  "packets sent, vector(packetBytes)"
vector 172  SimpleUnderlayNetwork.overlayTerminal[34].udp  rcvdPk:vector(packetBytes)  ETV
attr interpolationmode  none
attr source  rcvdPk
attr title  "packets received, vector(packetBytes)"
vector 173  SimpleUnderlayNetwork.overlayTerminal[34].udp  passedUpPk:vector(count)  ETV
attr interpolationmode  none
attr title  "packets passed up, vector(count)"
vector 176  SimpleUnderlayNetwork.overlayTerminal[35].udp  sentPk:vector(packetBytes)  ETV
attr interpolationmode  none
attr source  sentPk
attr title  "packets sent, vector(packetBytes)"
vector 181  SimpleUnderlayNetwork.overlayTerminal[36].udp  sentPk:vector(packetBytes)  ETV
attr interpolationmode  none
attr source  sentPk
attr title  "packets sent, vector(packetBytes)"
vector 177  SimpleUnderlayNetwork.overlayTerminal[35].udp  rcvdPk:vector(packetBytes)  ETV
attr interpolationmode  none
attr source  rcvdPk
attr title  "packets received, vector(packetBytes)"
vector 178  SimpleUnderlayNetwork.overlayTerminal[35].udp  passedUpPk:vector(count)  ETV
attr interpolationmode  none
attr title  "packets passed up, vector(count)"
vector 182  SimpleUnderlayNetwork.overlayTerminal[36].udp  rcvdPk:vector(packetBytes)  ETV
attr interpolationmode  none
attr source  rcvdPk
attr title  "packets received, vector(packetBytes)"
vector 183  SimpleUnderlayNetwork.overlayTerminal[36].udp  passedUpPk:vector(count)  ETV
attr interpolationmode  none
attr title  "packets passed up, vector(count)"
vector 186  SimpleUnderlayNetwork.overlayTerminal[37].udp  sentPk:vector(packetBytes)  ETV
attr interpolationmode  none
attr source  sentPk
attr title  "packets sent, vector(packetBytes)"
vector 187  SimpleUnderlayNetwork.overlayTerminal[37].udp  rcvdPk:vector(packetBytes)  ETV
attr interpolationmode  none
attr source  rcvdPk
attr title  "packets received, vector(packetBytes)"
vector 188  SimpleUnderlayNetwork.overlayTerminal[37].udp  passedUpPk:vector(count)  ETV
attr interpolationmode  none
attr title  "packets passed up, vector(count)"
vector 191  SimpleUnderlayNetwork.overlayTerminal[38].udp  sentPk:vector(packetBytes)  ETV
attr interpolationmode  none
attr source  sentPk
attr title  "packets sent, vector(packetBytes)"
vector 196  SimpleUnderlayNetwork.overlayTerminal[39].udp  sentPk:vector(packetBytes)  ETV
attr interpolationmode  none
attr source  sentPk
attr title  "packets sent, vector(packetBytes)"
vector 192  SimpleUnderlayNetwork.overlayTerminal[38].udp  rcvdPk:vector(packetBytes)  ETV
attr interpolationmode  none
attr source  rcvdPk
attr title  "packets received, vector(packetBytes)"
vector 193  SimpleUnderlayNetwork.overlayTerminal[38].udp  passedUpPk:vector(count)  ETV
attr interpolationmode  none
attr title  "packets passed up, vector(count)"
vector 197  SimpleUnderlayNetwork.overlayTerminal[39].udp  rcvdPk:vector(packetBytes)  ETV
attr interpolationmode  none
attr source  rcvdPk
attr title  "packets received, vector(packetBytes)"
vector 198  SimpleUnderlayNetwork.overlayTerminal[39].udp  passedUpPk:vector(count)  ETV
attr interpolationmode  none
attr title  "packets passed up, vector(count)"
vector 201  SimpleUnderlayNetwork.overlayTerminal[40].udp  sentPk:vector(packetBytes)  ETV
attr interpolationmode  none
attr source  sentPk
attr title  "packets sent, vector(packetBytes)"
1	44	0.5139701	171
1	57	0.783144821	40
1	81	1.224222084	250
1	96	1.329869621	40
1	118	2.280027982	65
1	124	2.561108149	64
1	130	2.672960074	93
1	745	13.277511658	65
1	751	13.572209983	67
1	758	13.752128342	67
1	766	13.780175784	67
1	778	13.850810632	93
1	910	16.549491687	149
1	1134	19.019899226	122
1	1142	19.177422145	437
1	1165	19.24461162	40
1	1202	19.660221667	149
1	1262	20	171
1	1263	20	223
1	1285	20.065086149	249
1	1286	20.065086149	41
1	1287	20.065086149	67
1	1658	20.412142506	93
1	2232	20.906322974	249
1	2233	20.906322974	145
1	2234	20.906322974	41
1	2274	20.968968069	93
1	2582	23.243105544	149
1	2647	23.862490248	149
1	3404	30.291331543	249
1	3405	30.291331543	41
1	3406	30.291331543	67
1	3497	30.354009958	249
1	3498	30.354009958	41
1	3499	30.354009958	67
1	3685	30.548081701	249
1	3686	30.548081701	67
1	3687	30.548081701	41
1	3791	30.611292488	93
2	40	0.5139701	93
2	55	0.783144821	40
2	77	1.224222084	93
2	94	1.329869621	40
2	116	2.280027982	93
2	122	2.561108149	68
2	128	2.672960074	122
2	743	13.277511658	93
2	749	13.572209983	149
2	756	13.752128342	149
2	764	13.780175784	149
2	776	13.850810632	122
2	906	16.549491687	67
2	1132	19.019899226	67
2	1138	19.177422145	93
2	1163	19.24461162	40
2	1200	19.660221667	67
2	1276	20.06311724	249
2	1278	20.065086149	171
2	1323	20.130800334	93
2	1469	20.280590175	249
2	1538	20.361869627	93
2	1652	20.412142506	93
2	2217	20.906322974	223
2	2270	20.968537331	249
2	2272	20.968968069	41
2	2350	21.073731379	93
2	2580	23.243105544	67
2	2645	23.862490248	67
2	3399	30.291331543	67
2	3492	30.354009958	67
2	3500	30.354097068	93
2	3553	30.417945985	93
2	3582	30.451825427	249
2	3661	30.521258649	249
2	3678	30.548081701	145
2	3789	30.611292488	41
2	3801	30.614337651	249
2	3826	30.657249517	93
3	40	0.5139701	1
3	55	0.783144821	2
3	77	1.224222084	3
3	94	1.329869621	4
3	116	2.280027982	5
3	122	2.561108149	6
3	128	2.672960074	7
3	743	13.277511658	8
3	749	13.572209983	9
3	756	13.752128342	10
3	764	13.780175784	11
3	776	13.850810632	12
3	906	16.549491687	13
3	1132	19.019899226	14
3	1138	19.177422145	15
3	1163	19.24461162	16
3	1200	19.660221667	17
3	1276	20.06311724	18
3	1278	20.065086149	19
3	1323	20.130800334	20
3	1469	20.280590175	21
3	1538	20.361869627	22
3	1652	20.412142506	23
3	2217	20.906322974	24
3	2270	20.968537331	25
3	2272	20.968968069	26
3	2350	21.073731379	27
3	2580	23.243105544	28
3	2645	23.862490248	29
3	3399	30.291331543	30
3	3492	30.354009958	31
3	3500	30.354097068	32
3	3553	30.417945985	33
3	3582	30.451825427	34
3	3661	30.521258649	35
3	3678	30.548081701	36
3	3789	30.611292488	37
3	3801	30.614337651	38
3	3826	30.657249517	39
6	39	0.367472188	93
6	54	0.647887859	40
6	121	2.409348095	68
6	228	4.056657696	122
6	236	4.254470292	329
6	253	4.777602306	40
6	335	6.191003819	122
6	378	7.364001	149
6	687	12.006670244	122
6	699	12.239596147	437
6	722	12.449557608	40
6	748	13.430747395	149
6	918	16.756977835	149
6	1065	17.849975427	149
6	1360	20.147264814	249
6	1361	20.147264814	249
6	1362	20.147264814	249
6	1421	20.210625209	93
6	1553	20.363126016	249
6	1554	20.363126016	41
6	1555	20.363126016	67
6	1974	20.576026661	249
6	1975	20.576026661	93
6	1976	20.576026661	41
6	2171	20.795615677	93
6	2205	20.818846747	249
6	2206	20.818846747	67
6	2207	20.818846747	41
6	2409	21.203204363	249
6	2410	21.203204363	41
6	2411	21.203204363	67
6	2476	21.524823672	93
6	3866	30.718642446	249
6	3867	30.718642446	67
6	3868	30.718642446	41
6	4067	30.989710899	93
6	4428	35.670247194	67
6	4457	36.011321078	93
6	4514	36.739631882	122
6	4525	37.033031904	815
6	4567	37.512861864	40
7	45	0.647887859	171
7	58	0.912854319	40
7	119	2.409348095	65
7	224	4.056657696	66
7	232	4.254470292	93
7	251	4.777602306	40
7	329	6.191003819	66
7	372	7.364001	67
7	681	12.006670244	67
7	695	12.239596147	93
7	720	12.449557608	40
7	746	13.430747395	65
7	914	16.756977835	67
7	1061	17.849975427	67
7	1345	20.147264814	223
7	1417	20.210625209	67
7	1540	20.361873067	249
7	1542	20.363126016	197
7	1566	20.367070516	249
7	1952	20.558828153	249
7	1954	20.565850629	93
7	1961	20.576026661	197
7	2167	20.791912892	249
7	2169	20.795615677	41
7	2200	20.818846747	67
7	2235	20.91362065	93
7	2317	21.017018268	93
7	2397	21.155783949	93
7	2404	21.203204363	67
7	2455	21.412147825	93
7	2472	21.524807873	249
7	2474	21.524823672	41
7	3861	30.718642446	67
7	4011	30.919873214	93
7	4063	30.989710899	67
7	4092	31.031439799	93
7	4426	35.670247194	93
7	4455	36.011321078	122
7	4510	36.739631882	67
7	4521	37.033031904	93
7	4565	37.512861864	40
8	45	0.647887859	1
8	58	0.912854319	2
8	119	2.409348095	3
8	224	4.056657696	4
8	232	4.254470292	5
8	251	4.777602306	6
8	329	6.191003819	7
8	372	7.364001	8
8	681	12.006670244	9
8	695	12.239596147	10
8	720	12.449557608	11
8	746	13.430747395	12
8	914	16.756977835	13
8	1061	17.849975427	14
8	1345	20.147264814	15
8	1417	20.210625209	16
8	1540	20.361873067	17
8	1542	20.363126016	18
8	1566	20.367070516	19
8	1952	20.558828153	20
8	1954	20.565850629	21
8	1961	20.576026661	22
8	2167	20.791912892	23
8	2169	20.795615677	24
8	2200	20.818846747	25
8	2235	20.91362065	26
8	2317	21.017018268	27
8	2397	21.155783949	28
8	2404	21.203204363	29
8	2455	21.412147825	30
8	2472	21.524807873	31
8	2474	21.524823672	32
8	3861	30.718642446	33
8	4011	30.919873214	34
8	4063	30.989710899	35
8	4092	31.031439799	36
8	4426	35.670247194	37
8	4455	36.011321078	38
8	4510	36.739631882	39
8	4521	37.033031904	40
8	4565	37.512861864	41
11	76	1.169688964	93
11	93	1.276509641	40
11	127	2.61710893	122
11	135	2.723837645	329
11	152	2.833994687	40
11	178	3.199877075	356
11	201	3.374146751	40
11	322	6.011042117	67
11	328	6.110593535	66
11	338	6.271940151	66
11	934	17.108668337	67
11	945	17.215126047	67
11	973	17.385598576	67
11	1003	17.439798621	67
11	1014	17.55822168	93
11	1190	19.518618195	149
11	1320	20.125038451	249
11	1321	20.125038451	223
11	1322	20.125038451	249
11	1370	20.154796595	93
11	1502	20.298132527	249
11	1503	20.298132527	41
11	1504	20.298132527	93
11	1519	20.325958663	93
11	2063	20.637559126	93
11	2326	21.025576321	249
11	2327	21.025576321	67
11	2328	21.025576321	41
11	2786	25.690739685	149
11	3258	30.161702447	249
11	3259	30.161702447	41
11	3260	30.161702447	119
11	3341	30.190705798	93
11	3653	30.503852289	249
11	3654	30.503852289	93
11	3655	30.503852289	41
11	3835	30.669111936	93
11	4028	30.927544596	249
11	4029	30.927544596	41
11	4030	30.927544596	67
11	4058	30.958150814	93
12	82	1.276509641	250
12	97	1.37970109	40
12	125	2.61710893	64
12	131	2.723837645	93
12	150	2.833994687	40
12	172	3.199877075	93
12	199	3.374146751	40
12	320	6.011042117	93
12	326	6.110593535	122
12	336	6.271940151	122
12	346	6.649076061	122
12	932	17.108668337	93
12	943	17.215126047	149
12	971	17.385598576	149
12	1001	17.439798621	149
12	1012	17.55822168	122
12	1188	19.518618195	67
12	1309	20.125038451	145
12	1366	20.153396724	249
12	1368	20.154796595	41
12	1487	20.298132527	223
12	1505	20.305819339	249
12	1517	20.325958663	41
12	1520	20.32822434	249
12	1781	20.462428979	93
12	2059	20.637559126	67
12	2319	21.025576321	93
12	2334	21.05542126	93
12	2412	21.205022525	93
12	2784	25.690739685	67
12	3249	30.161702447	119
12	3339	30.190705798	41
12	3342	30.191033284	249
12	3463	30.340207501	93
12	3646	30.503852289	93
12	3663	30.535241034	93
12	3831	30.668234214	249
12	3833	30.669111936	41
12	4023	30.927544596	67
12	4056	30.958150814	41
12	4059	30.95867407	249
12	4139	31.102695962	93
13	82	1.276509641	1
13	97	1.37970109	2
13	125	2.61710893	3
13	131	2.723837645	4
13	150	2.833994687	5
13	172	3.199877075	6
13	199	3.374146751	7
13	320	6.011042117	8
13	326	6.110593535	9
13	336	6.271940151	10
13	346	6.649076061	11
13	932	17.108668337	12
13	943	17.215126047	13
13	971	17.385598576	14
13	1001	17.439798621	15
13	1012	17.55822168	16
13	1188	19.518618195	17
13	1309	20.125038451	18
13	1366	20.153396724	19
13	1368	20.154796595	20
13	1487	20.298132527	21
13	1505	20.305819339	22
13	1517	20.325958663	23
13	1520	20.32822434	24
13	1781	20.462428979	25
13	2059	20.637559126	26
13	2319	21.025576321	27
13	2334	21.05542126	28
13	2412	21.205022525	29
13	2784	25.690739685	30
13	3249	30.161702447	31
13	3339	30.190705798	32
13	3342	30.191033284	33
13	3463	30.340207501	34
13	3646	30.503852289	35
13	3663	30.535241034	36
13	3831	30.668234214	37
13	3833	30.669111936	38
13	4023	30.927544596	39
13	4056	30.958150814	40
13	4059	30.95867407	41
13	4139	31.102695962	42
16	115	2.202157404	93
16	149	2.782558595	40
16	223	3.943907075	66
16	231	4.153432271	93
16	325	6.06185932	122
16	402	7.840236267	122
16	427	7.998383744	383
16	453	8.231274634	40
16	460	8.26758833	149
16	568	10.171483253	67
16	574	10.323826585	67
16	580	10.52998598	93
16	755	13.66424046	149
16	844	15.255395575	149
16	937	17.161134688	149
16	1131	18.940455338	67
16	1137	19.097590671	93
16	1464	20.253506819	249
16	1465	20.253506819	223